ammonia1 opt with HFS/6-311++G**                        
GAUSSIAN              5 MOL ORBITALS     63 PRIMITIVES        4 NUCLEI
  N    1    (CENTRE  1)  -1.77287114  3.37581054  0.00000000  CHARGE =  7.0
  H    2    (CENTRE  2)  -1.06953208  1.54366626  0.00000000  CHARGE =  1.0
  H    3    (CENTRE  3)  -1.06980042  4.28927203  1.58773467  CHARGE =  1.0
  H    4    (CENTRE  4)  -1.06980042  4.28927203 -1.58773467  CHARGE =  1.0
CENTRE ASSIGNMENTS    1  1  1  1  1  1  1  1  1  1  1  1  1  1  1  1  1  1  1  1
CENTRE ASSIGNMENTS    1  1  1  1  1  1  1  1  1  1  1  1  1  1  1  1  2  2  2  2
CENTRE ASSIGNMENTS    2  2  2  2  2  3  3  3  3  3  3  3  3  3  4  4  4  4  4  4
CENTRE ASSIGNMENTS    4  4  4
TYPE ASSIGNMENTS      1  1  1  1  1  1  1  1  1  2  2  2  3  3  3  4  4  4  1  2
TYPE ASSIGNMENTS      3  4  1  2  3  4  1  2  3  4  5  6  7  8  9 10  1  1  1  1
TYPE ASSIGNMENTS      1  1  2  3  4  1  1  1  1  1  1  2  3  4  1  1  1  1  1  1
TYPE ASSIGNMENTS      2  3  4
EXPONENTS  0.6293480D+04 0.9490440D+03 0.2187760D+03 0.6369160D+02 0.1882820D+02
EXPONENTS  0.2720230D+01 0.3063310D+02 0.7026140D+01 0.2112050D+01 0.3063310D+02
EXPONENTS  0.7026140D+01 0.2112050D+01 0.3063310D+02 0.7026140D+01 0.2112050D+01
EXPONENTS  0.3063310D+02 0.7026140D+01 0.2112050D+01 0.6840090D+00 0.6840090D+00
EXPONENTS  0.6840090D+00 0.6840090D+00 0.2008780D+00 0.2008780D+00 0.2008780D+00
EXPONENTS  0.2008780D+00 0.6390000D-01 0.6390000D-01 0.6390000D-01 0.6390000D-01
EXPONENTS  0.9130000D+00 0.9130000D+00 0.9130000D+00 0.9130000D+00 0.9130000D+00
EXPONENTS  0.9130000D+00 0.3386500D+02 0.5094790D+01 0.1158790D+01 0.3258400D+00
EXPONENTS  0.1027410D+00 0.3600000D-01 0.7500000D+00 0.7500000D+00 0.7500000D+00
EXPONENTS  0.3386500D+02 0.5094790D+01 0.1158790D+01 0.3258400D+00 0.1027410D+00
EXPONENTS  0.3600000D-01 0.7500000D+00 0.7500000D+00 0.7500000D+00 0.3386500D+02
EXPONENTS  0.5094790D+01 0.1158790D+01 0.3258400D+00 0.1027410D+00 0.3600000D-01
EXPONENTS  0.7500000D+00 0.7500000D+00 0.7500000D+00
MO    1     MO 0.0        OCC NO =    2.0000000  ORB. ENERGY =  -13.772037
  0.54506924D+00  0.10018384D+01  0.16373980D+01  0.21979341D+01  0.21325461D+01
  0.21252026D+00  0.48949489D+00  0.13361732D+01 -0.15120841D-02  0.35952218D-02
  0.35361894D-02  0.27106297D-02 -0.73514151D-06 -0.72307071D-06 -0.55426243D-06
 -0.99201462D-15 -0.97572604D-15 -0.74793279D-15  0.12281380D-01  0.19310554D-02
 -0.13753122D-05  0.10840753D-14 -0.10016983D-02  0.26400690D-03 -0.71282017D-06
 -0.71910024D-15 -0.17212141D-04 -0.48669407D-04  0.19961692D-06  0.28870407D-15
 -0.17389293D-02  0.86122882D-03  0.87770052D-03 -0.37614521D-05 -0.36978238D-15
  0.36221199D-15  0.21990989D-04  0.39668606D-04  0.58481982D-04 -0.12921870D-02
  0.37842301D-03 -0.44085456D-04  0.87823733D-03 -0.27764419D-02  0.34238436D-15
  0.21916978D-04  0.39535102D-04  0.58285161D-04 -0.12935374D-02  0.37865420D-03
 -0.44461963D-04  0.87931393D-03  0.13868929D-02  0.24098880D-02  0.21916978D-04
  0.39535102D-04  0.58285161D-04 -0.12935374D-02  0.37865420D-03 -0.44461963D-04
  0.87931393D-03  0.13868929D-02 -0.24098880D-02
MO    2     MO 0.0        OCC NO =    2.0000000  ORB. ENERGY =   -0.717632
 -0.11058098D+00 -0.20324808D+00 -0.33218728D+00 -0.44590612D+00 -0.43264051D+00
 -0.43115070D-01 -0.18312037D+00 -0.49986328D+00  0.56567168D-03  0.19065835D+00
  0.18752779D+00  0.14374751D+00 -0.32117448D-03 -0.31590089D-03 -0.24215059D-03
  0.24978273D-13  0.24568137D-13  0.18832453D-13  0.25441509D+00  0.63177900D-01
 -0.10216225D-03 -0.83414133D-14  0.72007332D-01  0.67588887D-02 -0.94365920D-05
  0.14738914D-13  0.33400797D-02  0.36694458D-03 -0.17727534D-05 -0.72981527D-14
 -0.85091578D-02  0.42157492D-02  0.42934086D-02 -0.45423426D-04  0.24095159D-14
  0.29809909D-14  0.22092836D-01  0.39852324D-01  0.58752830D-01  0.28024080D-01
 -0.12309535D-02  0.83350174D-04 -0.45458085D-02  0.19133038D-01 -0.28748266D-14
  0.22091740D-01  0.39850347D-01  0.58749916D-01  0.28013988D-01 -0.12286000D-02
  0.85157508D-04 -0.45456457D-02 -0.95506419D-02 -0.16567155D-01  0.22091740D-01
  0.39850347D-01  0.58749916D-01  0.28013988D-01 -0.12286000D-02  0.85157508D-04
 -0.45456457D-02 -0.95506419D-02  0.16567155D-01
MO    3     MO 0.0        OCC NO =    2.0000000  ORB. ENERGY =   -0.367362
  0.12186530D-14  0.22398868D-14  0.36608559D-14  0.49140894D-14  0.47678964D-14
  0.47514780D-15  0.31261448D-14  0.85334307D-14 -0.96568808D-17 -0.33875485D-13
 -0.33319260D-13 -0.25540537D-13  0.25697366D-11  0.25275423D-11  0.19374616D-11
  0.88390538D+00  0.86939192D+00  0.66642346D+00 -0.26639439D-13  0.85789651D-14
  0.77048711D-12  0.27880353D+00  0.61611374D-13  0.14497909D-14  0.17234410D-12
  0.40753048D-01 -0.21361410D-12 -0.18633945D-13 -0.35475058D-13  0.10830145D-02
 -0.13412837D-13 -0.42750790D-13  0.56163627D-13  0.17526105D-12  0.52910663D-01
  0.25666075D-01 -0.11843439D-12 -0.21363874D-12 -0.31495981D-12 -0.22135875D-12
  0.36913250D-13 -0.79000007D-13  0.22705083D-13 -0.48514616D-13  0.18213706D-01
  0.36204402D-01  0.65307577D-01  0.96280582D-01  0.62311695D-01  0.10243740D-01
  0.55020420D-03 -0.79421421D-02 -0.14882526D-01 -0.76185836D-02 -0.36204402D-01
 -0.65307577D-01 -0.96280582D-01 -0.62311695D-01 -0.10243740D-01 -0.55020420D-03
  0.79421421D-02  0.14882526D-01 -0.76185836D-02
MO    4     MO 0.0        OCC NO =    2.0000000  ORB. ENERGY =   -0.366845
 -0.71068424D-04 -0.13062392D-03 -0.21349085D-03 -0.28657591D-03 -0.27805034D-03
 -0.27709287D-04 -0.11961857D-03 -0.32652256D-03  0.36951017D-06 -0.10359278D-03
 -0.10189182D-03 -0.78104132D-04  0.88403067D+00  0.86951516D+00  0.66651792D+00
 -0.25296331D-11 -0.24880973D-11 -0.19072254D-11  0.16849616D-03 -0.24690816D-04
  0.27887374D+00 -0.83720494D-12  0.10125100D-03  0.55637999D-05  0.40813951D-01
 -0.63940581D-13  0.29425028D-04  0.19385126D-05  0.10854431D-02 -0.39989506D-13
 -0.29402178D-05 -0.12910091D-01  0.12913032D-01  0.52891084D-01 -0.12970882D-12
 -0.48751815D-13 -0.41793071D-01 -0.75388737D-01 -0.11114287D+00 -0.71987879D-01
 -0.11880099D-01 -0.64041675D-03  0.91517305D-02 -0.16191443D-01 -0.61854400D-13
  0.20879925D-01  0.37664406D-01  0.55527262D-01  0.35933142D-01  0.59146957D-02
  0.31833242D-03 -0.45808899D-02  0.96531799D-02 -0.14859088D-01  0.20879925D-01
  0.37664406D-01  0.55527262D-01  0.35933142D-01  0.59146957D-02  0.31833242D-03
 -0.45808899D-02  0.96531799D-02  0.14859088D-01
MO    5     MO 0.0        OCC NO =    2.0000000  ORB. ENERGY =   -0.180215
  0.37256140D-01  0.68476866D-01  0.11191812D+00  0.15023145D+00  0.14576209D+00
  0.14526016D-01  0.63314500D-01  0.17282946D+00 -0.19558294D-03  0.10064483D+01
  0.98992270D+00  0.75881509D+00  0.29078656D-03  0.28601193D-03  0.21923951D-03
 -0.38435942D-13 -0.37804835D-13 -0.28978909D-13 -0.96322680D-01  0.31850840D+00
  0.98792891D-04  0.17582239D-12 -0.45664415D-01  0.73776533D-01  0.11431851D-04
 -0.26435547D-12  0.20961940D-01  0.93571777D-02 -0.84896214D-05  0.21894717D-12
  0.26924549D-01 -0.13476645D-01 -0.13447904D-01 -0.30715855D-04 -0.92702164D-13
 -0.99415608D-13  0.94361556D-02  0.17021478D-01  0.25094146D-01  0.14655827D-01
 -0.82818885D-02 -0.10387182D-02  0.23687714D-01  0.74192827D-02  0.51447534D-13
  0.94611609D-02  0.17066584D-01  0.25160644D-01  0.14696067D-01 -0.82578891D-02
 -0.10307834D-02  0.23675861D-01 -0.37070988D-02 -0.64256638D-02  0.94611609D-02
  0.17066584D-01  0.25160644D-01  0.14696067D-01 -0.82578891D-02 -0.10307834D-02
  0.23675861D-01 -0.37070988D-02  0.64256638D-02
END DATA
 THE  HF ENERGY =    -55.474952794769 THE VIRIAL(-V/T)=   1.99835950
