Argon atom LDA with HFS/6-311++G**
GAUSSIAN              9 MOL ORBITALS     53 PRIMITIVES        1 NUCLEI
  Ar   1    (CENTRE  1)   0.00000000  0.00000000  0.00000000  CHARGE = 18.0
CENTRE ASSIGNMENTS    1  1  1  1  1  1  1  1  1  1  1  1  1  1  1  1  1  1  1  1
CENTRE ASSIGNMENTS    1  1  1  1  1  1  1  1  1  1  1  1  1  1  1  1  1  1  1  1
CENTRE ASSIGNMENTS    1  1  1  1  1  1  1  1  1  1  1  1  1
TYPE ASSIGNMENTS      1  1  1  1  1  1  1  1  1  1  1  1  1  1  2  3  4  2  2  2
TYPE ASSIGNMENTS      2  2  3  3  3  3  3  4  4  4  4  4  2  2  3  3  4  4  2  3
TYPE ASSIGNMENTS      4  2  3  4  2  3  4  5  6  7  8  9 10
EXPONENTS  0.1180224D+06 0.1768354D+05 0.4027766D+04 0.1145398D+04 0.3771637D+03
EXPONENTS  0.1381597D+03 0.1381597D+03 0.5498912D+02 0.2317067D+02 0.7377860D+01
EXPONENTS  0.2923688D+01 0.6504050D+00 0.2328250D+00 0.6000000D-01 0.6000000D-01
EXPONENTS  0.6000000D-01 0.6000000D-01 0.6630620D+03 0.1570928D+03 0.5023110D+02
EXPONENTS  0.1863535D+02 0.7446537D+01 0.6630620D+03 0.1570928D+03 0.5023110D+02
EXPONENTS  0.1863535D+02 0.7446537D+01 0.6630620D+03 0.1570928D+03 0.5023110D+02
EXPONENTS  0.1863535D+02 0.7446537D+01 0.7446537D+01 0.3095698D+01 0.7446537D+01
EXPONENTS  0.3095698D+01 0.7446537D+01 0.3095698D+01 0.1106463D+01 0.1106463D+01
EXPONENTS  0.1106463D+01 0.4156010D+00 0.4156010D+00 0.4156010D+00 0.1454490D+00
EXPONENTS  0.1454490D+00 0.1454490D+00 0.8500000D+00 0.8500000D+00 0.8500000D+00
EXPONENTS  0.8500000D+00 0.8500000D+00 0.8500000D+00
MO    1     MO 0.0        OCC NO =    2.0000000  ORB. ENERGY = -115.125259
  0.13912156D+01  0.25969050D+01  0.44243125D+01  0.68646108D+01  0.92375618D+01
  0.67944610D+01  0.27063182D+01  0.58695249D+01  0.13993223D+01  0.47122444D-01
 -0.65094496D-02  0.74559521D-03 -0.18622710D-03  0.17098182D-04  0.00000000D+00
  0.00000000D+00  0.00000000D+00  0.00000000D+00  0.00000000D+00  0.00000000D+00
  0.00000000D+00  0.00000000D+00  0.00000000D+00  0.00000000D+00  0.00000000D+00
  0.00000000D+00  0.00000000D+00  0.00000000D+00  0.00000000D+00  0.00000000D+00
  0.00000000D+00  0.00000000D+00  0.00000000D+00  0.00000000D+00  0.00000000D+00
  0.00000000D+00  0.00000000D+00  0.00000000D+00  0.00000000D+00  0.00000000D+00
  0.00000000D+00  0.00000000D+00  0.00000000D+00  0.00000000D+00  0.00000000D+00
  0.00000000D+00  0.00000000D+00 -0.45723842D-16  0.13213265D-15 -0.86408813D-16
  0.00000000D+00  0.00000000D+00  0.00000000D+00
MO    2     MO 0.0        OCC NO =    2.0000000  ORB. ENERGY =  -11.145800
 -0.41669221D+00 -0.77781621D+00 -0.13251551D+01 -0.20560650D+01 -0.27668033D+01
 -0.20350540D+01 -0.13687992D+01 -0.29686830D+01 -0.70774798D+00  0.16458854D+01
  0.94822482D+00  0.28284648D-01 -0.41796953D-02  0.34553862D-03  0.00000000D+00
  0.00000000D+00  0.00000000D+00  0.00000000D+00  0.00000000D+00  0.00000000D+00
  0.00000000D+00  0.00000000D+00  0.00000000D+00  0.00000000D+00  0.00000000D+00
  0.00000000D+00  0.00000000D+00  0.00000000D+00  0.00000000D+00  0.00000000D+00
  0.00000000D+00  0.00000000D+00  0.00000000D+00  0.00000000D+00  0.00000000D+00
  0.00000000D+00  0.00000000D+00  0.00000000D+00  0.00000000D+00  0.00000000D+00
  0.00000000D+00  0.00000000D+00  0.00000000D+00  0.00000000D+00  0.00000000D+00
  0.00000000D+00  0.00000000D+00 -0.10031408D-14  0.68111825D-15  0.32202259D-15
  0.00000000D+00  0.00000000D+00  0.00000000D+00
MO    3     MO 0.0        OCC NO =    2.0000000  ORB. ENERGY =   -8.698343
  0.00000000D+00  0.00000000D+00  0.00000000D+00  0.00000000D+00  0.00000000D+00
  0.00000000D+00  0.00000000D+00  0.00000000D+00  0.00000000D+00  0.00000000D+00
  0.00000000D+00  0.00000000D+00  0.00000000D+00  0.00000000D+00  0.00000000D+00
 -0.22299682D-04  0.00000000D+00  0.00000000D+00  0.00000000D+00  0.00000000D+00
  0.00000000D+00  0.00000000D+00  0.14345675D+02  0.18592075D+02  0.20020785D+02
  0.15757900D+02  0.11705499D+02  0.00000000D+00  0.00000000D+00  0.00000000D+00
  0.00000000D+00  0.00000000D+00  0.00000000D+00  0.00000000D+00 -0.40292847D+01
  0.18078433D+01  0.00000000D+00  0.00000000D+00  0.00000000D+00  0.75535193D-01
  0.00000000D+00  0.00000000D+00 -0.20243548D-02  0.00000000D+00  0.00000000D+00
  0.20073188D-03  0.00000000D+00  0.00000000D+00  0.00000000D+00  0.00000000D+00
  0.00000000D+00  0.00000000D+00  0.00000000D+00
MO    4     MO 0.0        OCC NO =    2.0000000  ORB. ENERGY =   -8.698343
  0.00000000D+00  0.00000000D+00  0.00000000D+00  0.00000000D+00  0.00000000D+00
  0.00000000D+00  0.00000000D+00  0.00000000D+00  0.00000000D+00  0.00000000D+00
  0.00000000D+00  0.00000000D+00  0.00000000D+00  0.00000000D+00  0.00000000D+00
  0.00000000D+00 -0.22299682D-04  0.00000000D+00  0.00000000D+00  0.00000000D+00
  0.00000000D+00  0.00000000D+00  0.00000000D+00  0.00000000D+00  0.00000000D+00
  0.00000000D+00  0.00000000D+00  0.14345675D+02  0.18592075D+02  0.20020785D+02
  0.15757900D+02  0.11705499D+02  0.00000000D+00  0.00000000D+00  0.00000000D+00
  0.00000000D+00 -0.40292847D+01  0.18078433D+01  0.00000000D+00  0.00000000D+00
  0.75535193D-01  0.00000000D+00  0.00000000D+00 -0.20243548D-02  0.00000000D+00
  0.00000000D+00  0.20073188D-03  0.00000000D+00  0.00000000D+00  0.00000000D+00
  0.00000000D+00  0.00000000D+00  0.00000000D+00
MO    5     MO 0.0        OCC NO =    2.0000000  ORB. ENERGY =   -8.698343
  0.00000000D+00  0.00000000D+00  0.00000000D+00  0.00000000D+00  0.00000000D+00
  0.00000000D+00  0.00000000D+00  0.00000000D+00  0.00000000D+00  0.00000000D+00
  0.00000000D+00  0.00000000D+00  0.00000000D+00  0.00000000D+00 -0.22299682D-04
  0.00000000D+00  0.00000000D+00  0.14345675D+02  0.18592075D+02  0.20020785D+02
  0.15757900D+02  0.11705499D+02  0.00000000D+00  0.00000000D+00  0.00000000D+00
  0.00000000D+00  0.00000000D+00  0.00000000D+00  0.00000000D+00  0.00000000D+00
  0.00000000D+00  0.00000000D+00 -0.40292847D+01  0.18078433D+01  0.00000000D+00
  0.00000000D+00  0.00000000D+00  0.00000000D+00  0.75535193D-01  0.00000000D+00
  0.00000000D+00 -0.20243548D-02  0.00000000D+00  0.00000000D+00  0.20073188D-03
  0.00000000D+00  0.00000000D+00  0.00000000D+00  0.00000000D+00  0.00000000D+00
  0.00000000D+00  0.00000000D+00  0.00000000D+00
MO    6     MO 0.0        OCC NO =    2.0000000  ORB. ENERGY =   -0.971060
  0.13706034D+00  0.25584293D+00  0.43587620D+00  0.67629049D+00  0.91006982D+00
  0.66937944D+00  0.48323309D+00  0.10480470D+01  0.24985933D+00 -0.80013798D+00
 -0.65989731D+00  0.34608058D+00  0.12757256D+00  0.13892645D-02  0.00000000D+00
  0.00000000D+00  0.00000000D+00  0.00000000D+00  0.00000000D+00  0.00000000D+00
  0.00000000D+00  0.00000000D+00  0.00000000D+00  0.00000000D+00  0.00000000D+00
  0.00000000D+00  0.00000000D+00  0.00000000D+00  0.00000000D+00  0.00000000D+00
  0.00000000D+00  0.00000000D+00  0.00000000D+00  0.00000000D+00  0.00000000D+00
  0.00000000D+00  0.00000000D+00  0.00000000D+00  0.00000000D+00  0.00000000D+00
  0.00000000D+00  0.00000000D+00  0.00000000D+00  0.00000000D+00  0.00000000D+00
  0.00000000D+00  0.00000000D+00 -0.10871210D-16  0.15366209D-14 -0.15257497D-14
  0.00000000D+00  0.00000000D+00  0.00000000D+00
MO    7     MO 0.0        OCC NO =    2.0000000  ORB. ENERGY =   -0.429214
  0.00000000D+00  0.00000000D+00  0.00000000D+00  0.00000000D+00  0.00000000D+00
  0.00000000D+00  0.00000000D+00  0.00000000D+00  0.00000000D+00  0.00000000D+00
  0.00000000D+00  0.00000000D+00  0.00000000D+00  0.00000000D+00  0.00000000D+00
  0.76520012D-03  0.00000000D+00  0.00000000D+00  0.00000000D+00  0.00000000D+00
  0.00000000D+00  0.00000000D+00 -0.43194396D+01 -0.55980177D+01 -0.60281981D+01
 -0.47446561D+01 -0.35244905D+01  0.00000000D+00  0.00000000D+00  0.00000000D+00
  0.00000000D+00  0.00000000D+00  0.00000000D+00  0.00000000D+00  0.85753659D+00
 -0.38475606D+00  0.00000000D+00  0.00000000D+00  0.00000000D+00  0.54209226D+00
  0.00000000D+00  0.00000000D+00  0.25515374D+00  0.00000000D+00  0.00000000D+00
  0.36606807D-01  0.00000000D+00  0.00000000D+00  0.00000000D+00  0.00000000D+00
  0.00000000D+00  0.00000000D+00  0.00000000D+00
MO    8     MO 0.0        OCC NO =    2.0000000  ORB. ENERGY =   -0.429214
  0.00000000D+00  0.00000000D+00  0.00000000D+00  0.00000000D+00  0.00000000D+00
  0.00000000D+00  0.00000000D+00  0.00000000D+00  0.00000000D+00  0.00000000D+00
  0.00000000D+00  0.00000000D+00  0.00000000D+00  0.00000000D+00  0.00000000D+00
  0.00000000D+00  0.76520012D-03  0.00000000D+00  0.00000000D+00  0.00000000D+00
  0.00000000D+00  0.00000000D+00  0.00000000D+00  0.00000000D+00  0.00000000D+00
  0.00000000D+00  0.00000000D+00 -0.43194396D+01 -0.55980177D+01 -0.60281981D+01
 -0.47446561D+01 -0.35244905D+01  0.00000000D+00  0.00000000D+00  0.00000000D+00
  0.00000000D+00  0.85753659D+00 -0.38475606D+00  0.00000000D+00  0.00000000D+00
  0.54209226D+00  0.00000000D+00  0.00000000D+00  0.25515374D+00  0.00000000D+00
  0.00000000D+00  0.36606807D-01  0.00000000D+00  0.00000000D+00  0.00000000D+00
  0.00000000D+00  0.00000000D+00  0.00000000D+00
MO    9     MO 0.0        OCC NO =    2.0000000  ORB. ENERGY =   -0.429214
  0.00000000D+00  0.00000000D+00  0.00000000D+00  0.00000000D+00  0.00000000D+00
  0.00000000D+00  0.00000000D+00  0.00000000D+00  0.00000000D+00  0.00000000D+00
  0.00000000D+00  0.00000000D+00  0.00000000D+00  0.00000000D+00  0.76520012D-03
  0.00000000D+00  0.00000000D+00 -0.43194396D+01 -0.55980177D+01 -0.60281981D+01
 -0.47446561D+01 -0.35244905D+01  0.00000000D+00  0.00000000D+00  0.00000000D+00
  0.00000000D+00  0.00000000D+00  0.00000000D+00  0.00000000D+00  0.00000000D+00
  0.00000000D+00  0.00000000D+00  0.85753659D+00 -0.38475606D+00  0.00000000D+00
  0.00000000D+00  0.00000000D+00  0.00000000D+00  0.54209226D+00  0.00000000D+00
  0.00000000D+00  0.25515374D+00  0.00000000D+00  0.00000000D+00  0.36606807D-01
  0.00000000D+00  0.00000000D+00  0.00000000D+00  0.00000000D+00  0.00000000D+00
  0.00000000D+00  0.00000000D+00  0.00000000D+00
END DATA
 TOTAL ENERGY =   -527.553884294496 THE VIRIAL(-V/T)=   2.00273689
