 lithiumhydride1 opt with HFS/6-311++G**                 
GAUSSIAN              2 MOL ORBITALS     45 PRIMITIVES        2 NUCLEI
  Li   1    (CENTRE  1)   1.16012555 -1.28844929  0.00000000  CHARGE =  3.0
  H    2    (CENTRE  2)  -1.96534541 -1.28844929  0.00000000  CHARGE =  1.0
CENTRE ASSIGNMENTS    1  1  1  1  1  1  1  1  1  1  1  1  1  1  1  1  1  1  1  1
CENTRE ASSIGNMENTS    1  1  1  1  1  1  1  1  1  1  1  1  1  1  1  1  2  2  2  2
CENTRE ASSIGNMENTS    2  2  2  2  2
TYPE ASSIGNMENTS      1  1  1  1  1  1  1  1  1  2  2  2  3  3  3  4  4  4  1  2
TYPE ASSIGNMENTS      3  4  1  2  3  4  1  2  3  4  5  6  7  8  9 10  1  1  1  1
TYPE ASSIGNMENTS      1  1  2  3  4
EXPONENTS  0.9004600D+03 0.1344330D+03 0.3043650D+02 0.8626390D+01 0.2483320D+01
EXPONENTS  0.3031790D+00 0.4868900D+01 0.8569240D+00 0.2432270D+00 0.4868900D+01
EXPONENTS  0.8569240D+00 0.2432270D+00 0.4868900D+01 0.8569240D+00 0.2432270D+00
EXPONENTS  0.4868900D+01 0.8569240D+00 0.2432270D+00 0.6350700D-01 0.6350700D-01
EXPONENTS  0.6350700D-01 0.6350700D-01 0.2436830D-01 0.2436830D-01 0.2436830D-01
EXPONENTS  0.2436830D-01 0.7400000D-02 0.7400000D-02 0.7400000D-02 0.7400000D-02
EXPONENTS  0.2000000D+00 0.2000000D+00 0.2000000D+00 0.2000000D+00 0.2000000D+00
EXPONENTS  0.2000000D+00 0.3386500D+02 0.5094790D+01 0.1158790D+01 0.3258400D+00
EXPONENTS  0.1027410D+00 0.3600000D-01 0.7500000D+00 0.7500000D+00 0.7500000D+00
MO    1     MO 0.0        OCC NO =    2.0000000  ORB. ENERGY =   -1.776379
  0.15998167D+00  0.29628047D+00  0.48164192D+00  0.60185343D+00  0.55454572D+00
  0.20640352D-01  0.96576094D-01  0.26516587D+00 -0.30596866D-03  0.26583581D-02
  0.14778593D-02  0.16970137D-02 -0.69998987D-18 -0.38914490D-18 -0.44685192D-18
 -0.51712454D-16 -0.28748470D-16 -0.33011634D-16  0.32228322D-02 -0.30804593D-03
  0.82574661D-17  0.25909306D-17 -0.10113329D-02  0.32189296D-04 -0.10634957D-17
 -0.11254369D-18  0.12636095D-03 -0.22574563D-05  0.31966881D-18 -0.29686399D-19
 -0.10663579D-04  0.53317893D-05  0.53317893D-05  0.45473787D-17  0.13821856D-16
 -0.20414160D-18  0.64085864D-04  0.11560175D-03  0.17042746D-03  0.10597054D-02
 -0.61399901D-03 -0.32274663D-04  0.33972058D-02  0.16232561D-15  0.24131095D-15
MO    2     MO 0.0        OCC NO =    2.0000000  ORB. ENERGY =   -0.127753
 -0.21478662D-01 -0.39777733D-01 -0.64663807D-01 -0.80803046D-01 -0.74451654D-01
 -0.27711121D-02 -0.23672527D-01 -0.64996896D-01  0.74998387D-04 -0.38258192D-01
 -0.21268851D-01 -0.24422848D-01 -0.46193940D-16 -0.25680567D-16 -0.29488785D-16
 -0.32539384D-15 -0.18089598D-15 -0.20772138D-15  0.28119215D-01 -0.44228131D-02
 -0.29147260D-16 -0.13546665D-15  0.20743044D-02 -0.84678536D-05  0.12035541D-17
  0.43194491D-18  0.29974689D-03 -0.13184070D-04 -0.64395313D-18 -0.83318515D-18
  0.18099095D-02 -0.90495477D-03 -0.90495477D-03  0.46951818D-16  0.17218557D-15
  0.18741919D-16  0.42669107D-01  0.76968982D-01  0.11347257D+00  0.87539668D-01
  0.33595665D-01  0.47117132D-02  0.70899894D-02 -0.20776732D-16 -0.29086378D-15
END DATA
 THE  HF ENERGY =     -7.701767579528 THE VIRIAL(-V/T)=   1.99984104
