 Neon atom LDA with HFS/6-311++G**
GAUSSIAN              5 MOL ORBITALS     36 PRIMITIVES        1 NUCLEI
  Ne   1    (CENTRE  1)   0.00000000  0.00000000  0.00000000  CHARGE = 10.0
CENTRE ASSIGNMENTS    1  1  1  1  1  1  1  1  1  1  1  1  1  1  1  1  1  1  1  1
CENTRE ASSIGNMENTS    1  1  1  1  1  1  1  1  1  1  1  1  1  1  1  1
TYPE ASSIGNMENTS      1  1  1  1  1  1  1  1  1  2  2  2  3  3  3  4  4  4  1  2
TYPE ASSIGNMENTS      3  4  1  2  3  4  1  2  3  4  5  6  7  8  9 10
EXPONENTS  0.1399570D+05 0.2117100D+04 0.4904250D+03 0.1438330D+03 0.4192650D+02
EXPONENTS  0.6156840D+01 0.6912110D+02 0.1583500D+02 0.4673260D+01 0.6912110D+02
EXPONENTS  0.1583500D+02 0.4673260D+01 0.6912110D+02 0.1583500D+02 0.4673260D+01
EXPONENTS  0.6912110D+02 0.1583500D+02 0.4673260D+01 0.1457560D+01 0.1457560D+01
EXPONENTS  0.1457560D+01 0.1457560D+01 0.3970570D+00 0.3970570D+00 0.3970570D+00
EXPONENTS  0.3970570D+00 0.1300000D+00 0.1300000D+00 0.1300000D+00 0.1300000D+00
EXPONENTS  0.2304000D+01 0.2304000D+01 0.2304000D+01 0.2304000D+01 0.2304000D+01
EXPONENTS  0.2304000D+01
MO    1     MO 0.0        OCC NO =    2.0000000  ORB. ENERGY =  -30.971874
  0.91530200D+00  0.16816779D+01  0.27532126D+01  0.37289362D+01  0.37466695D+01
  0.46401988D+00  0.96587220D+00  0.24625312D+01 -0.43620438D-02  0.00000000D+00
  0.00000000D+00  0.00000000D+00  0.00000000D+00  0.00000000D+00  0.00000000D+00
  0.00000000D+00  0.00000000D+00  0.00000000D+00  0.99745411D-02  0.00000000D+00
  0.00000000D+00  0.00000000D+00 -0.15854772D-02  0.00000000D+00  0.00000000D+00
  0.00000000D+00  0.25783354D-03  0.00000000D+00  0.00000000D+00  0.00000000D+00
  0.19414327D-14 -0.60153388D-14  0.40739061D-14  0.00000000D+00  0.00000000D+00
  0.00000000D+00
MO    2     MO 0.0        OCC NO =    2.0000000  ORB. ENERGY =   -1.461516
 -0.22034725D+00 -0.40484245D+00 -0.66280074D+00 -0.89769371D+00 -0.90196279D+00
 -0.11170685D+00 -0.43656758D+00 -0.11130471D+01  0.19716137D-02  0.00000000D+00
  0.00000000D+00  0.00000000D+00  0.00000000D+00  0.00000000D+00  0.00000000D+00
  0.00000000D+00  0.00000000D+00  0.00000000D+00  0.62001996D+00  0.00000000D+00
  0.00000000D+00  0.00000000D+00  0.16922364D+00  0.00000000D+00  0.00000000D+00
  0.00000000D+00 -0.74404724D-03  0.00000000D+00  0.00000000D+00  0.00000000D+00
  0.40709812D-15  0.22267347D-15 -0.62977159D-15  0.00000000D+00  0.00000000D+00
  0.00000000D+00
MO    3     MO 0.0        OCC NO =    2.0000000  ORB. ENERGY =   -0.576690
  0.00000000D+00  0.00000000D+00  0.00000000D+00  0.00000000D+00  0.00000000D+00
  0.00000000D+00  0.00000000D+00  0.00000000D+00  0.00000000D+00  0.34100268D+01
  0.36297875D+01  0.26984709D+01  0.00000000D+00  0.00000000D+00  0.00000000D+00
  0.00000000D+00  0.00000000D+00  0.00000000D+00  0.00000000D+00  0.10843406D+01
  0.00000000D+00  0.00000000D+00  0.00000000D+00  0.17293976D+00  0.00000000D+00
  0.00000000D+00  0.00000000D+00  0.64546181D-02  0.00000000D+00  0.00000000D+00
  0.00000000D+00  0.00000000D+00  0.00000000D+00  0.00000000D+00  0.00000000D+00
  0.00000000D+00
MO    4     MO 0.0        OCC NO =    2.0000000  ORB. ENERGY =   -0.576690
  0.00000000D+00  0.00000000D+00  0.00000000D+00  0.00000000D+00  0.00000000D+00
  0.00000000D+00  0.00000000D+00  0.00000000D+00  0.00000000D+00  0.00000000D+00
  0.00000000D+00  0.00000000D+00  0.00000000D+00  0.00000000D+00  0.00000000D+00
  0.34100268D+01  0.36297875D+01  0.26984709D+01  0.00000000D+00  0.00000000D+00
  0.00000000D+00  0.10843406D+01  0.00000000D+00  0.00000000D+00  0.00000000D+00
  0.17293976D+00  0.00000000D+00  0.00000000D+00  0.00000000D+00  0.64546181D-02
  0.00000000D+00  0.00000000D+00  0.00000000D+00  0.00000000D+00  0.00000000D+00
  0.00000000D+00
MO    5     MO 0.0        OCC NO =    2.0000000  ORB. ENERGY =   -0.576690
  0.00000000D+00  0.00000000D+00  0.00000000D+00  0.00000000D+00  0.00000000D+00
  0.00000000D+00  0.00000000D+00  0.00000000D+00  0.00000000D+00  0.00000000D+00
  0.00000000D+00  0.00000000D+00  0.34100268D+01  0.36297875D+01  0.26984709D+01
  0.00000000D+00  0.00000000D+00  0.00000000D+00  0.00000000D+00  0.00000000D+00
  0.10843406D+01  0.00000000D+00  0.00000000D+00  0.00000000D+00  0.17293976D+00
  0.00000000D+00  0.00000000D+00  0.00000000D+00  0.64546181D-02  0.00000000D+00
  0.00000000D+00  0.00000000D+00  0.00000000D+00  0.00000000D+00  0.00000000D+00
  0.00000000D+00
END DATA
 TOTAL ENERGY =   -128.960400785781 THE VIRIAL(-V/T)=   2.00233762
